LAMMPS data file via write_data, version 29 Aug 2024, timestep = 2130000, units = lj

2880 atoms
1 atom types
2850 bonds
1 bond types
2820 angles
1 angle types

0 15.019582267665506 xlo xhi
0 15.019582267665506 ylo yhi
0 15.019582267665506 zlo zhi

Masses

1 1

Pair Coeffs # lj/cut

1 1 1

Bond Coeffs # fene

1 30 1.5 1 1

Angle Coeffs # cosine

1 1.07549

Atoms # angle

1667 18 1 11.814847368754936 6.438530770483161 5.177704871685942 0 -1 0
2539 27 1 12.95800873268832 0.2600746022296302 2.5676206946446634 0 0 0
767 8 1 3.2390398846451527 7.271417384556676 2.9649215990749083 0 1 1
469 5 1 9.868950360603275 6.583827207040951 7.337930905278987 1 0 0
430 5 1 11.978145250877875 5.79545689490498 0.11761736388197766 1 0 1
2788 30 1 1.3844091988834664 4.409105380486078 7.13879971287368 1 -1 0
1989 21 1 10.382668515055537 0.22032805443880124 5.859996980066093 0 1 -1
739 8 1 9.204482015170488 3.7710972475117295 1.434691355248764 0 1 1
2157 23 1 3.253909013912988 5.352448190323038 0.43950199085464076 1 0 0
150 2 1 10.697910028442816 0.5425144556205372 1.5856786599717496 0 -1 0
1516 16 1 11.518189700502829 4.603923389376281 0.2898448156827355 0 -1 -1
649 7 1 3.29104447750383 0.9494330072228716 6.419294238528566 2 0 0
323 4 1 8.908204036234807 7.3241856943255765 6.3188367849929525 0 0 -1
2777 29 1 7.845048274809123 5.781006979004606 0.6304860164566998 1 0 1
1697 18 1 0.6648651232010458 0.48674830201634234 1.0736010772833864 1 0 0
2871 30 1 14.42723572468052 7.1028919452734 2.0505112083465886 0 -1 1
1811 19 1 8.810334766580137 0.09489118620782294 3.639089863950485 0 1 0
409 5 1 0.23881954279377418 4.617649068243551 7.202378081543321 2 0 0
2000 21 1 14.086876776912403 0.2538676881102038 7.184661328156763 0 1 -1
2260 24 1 1.9920584545110074 7.023272849226981 3.641313776185979 1 1 0
167 2 1 11.348803221617038 1.8682570160920136 0.7810426478197875 0 -1 0
1526 16 1 8.831923389888368 3.6106934784081055 0.03552066598793428 0 -1 -1
738 8 1 9.68812993456371 3.598806519909792 0.6805897296177074 0 1 1
40 1 1 1.4462104050286377 3.042872356840201 2.0612766774706675 1 0 0
876 10 1 4.376547128572433 0.39010275172194503 4.450545898953211 0 0 0
877 10 1 4.776689969972672 0.056761768064937705 5.262326798897267 0 0 0
408 5 1 0.6382369577727175 4.6414349916557684 6.325869595592876 2 0 0
1427 15 1 7.205208321907971 6.8263462116029086 1.8135279455797184 1 1 0
149 2 1 11.642939451018409 0.4025465515877894 1.477725124708372 0 -1 0
1700 18 1 14.07991169989279 1.3179731696645678 0.27637435727293114 0 0 0
2136 23 1 4.189373346084277 3.5804351842014492 0.5815039438970281 1 0 0
666 7 1 7.488975580900014 0.14730545997578237 6.499021941298557 2 0 0
2778 29 1 8.366196010486007 6.492402457524526 0.04678265216799786 1 0 1
740 8 1 9.041674445914204 2.8482237847213723 1.5409318107189012 0 1 1
1805 19 1 10.354566240641896 0.2541422550886582 4.729949705040292 0 1 0
2080 22 1 12.344871286220991 7.076143507182871 3.861181198877718 -1 0 -1
363 4 1 11.553386060895912 7.383379340008959 7.288701380872388 0 0 -1
1425 15 1 6.777669132239292 6.553064905042138 0.6608328201630449 1 1 0
480 5 1 14.177749486715213 5.532060540333145 7.168357621651781 1 0 0
1493 16 1 14.803290443298607 7.18886927146527 6.5379021013196 0 -1 -1
1698 18 1 0.7172969567337386 0.9303337767832508 0.18332823098909629 1 0 0
1445 16 1 9.10164963056327 6.989851263709299 4.801293138423022 0 -1 -1
1515 16 1 12.4260919861379 4.376228055673244 0.3694844006150445 0 -1 -1
41 1 1 0.8360912004093629 3.583693840210426 1.422185698444802 1 0 0
2375 25 1 4.431148900827557 4.319521827346472 7.320230128308275 1 -1 0
2791 30 1 2.4220342987280254 5.304528862032716 6.822441818601431 1 -1 0
2265 24 1 2.5326164543729277 4.295968913106663 0.7158538141795988 1 1 0
2134 23 1 5.83028296972852 4.474849759679473 1.023436146756483 1 0 0
755 8 1 8.72846873683893 4.833518616730567 0.7413940533979309 0 1 1
754 8 1 9.58171703470299 4.901403722144211 0.47143516161113647 0 1 1
932 10 1 0.18715535423498658 5.785692119346419 0.7504264752836849 0 0 0
1513 16 1 13.15450860680531 5.002994194933875 1.5421490989281654 0 -1 -1
2589 27 1 4.786079288165522 6.424912682940851 7.105477651873201 1 0 0
2772 29 1 6.297694900528149 3.8358724874143255 0.2748059398264361 1 0 1
2774 29 1 6.693363619978948 5.418840720468299 0.5125330447547263 1 0 1
2776 29 1 7.964158738303042 6.051787025865897 1.6162787683991005 1 0 1
2601 28 1 11.027515306350995 7.187570499824196 1.2601862971574527 1 1 0
1512 16 1 12.638799463676113 5.327343555807817 0.7799527641509694 0 -1 -1
923 10 1 13.44535199115093 4.665861969350644 0.32728582767586056 -1 0 0
2710 29 1 5.306402168609963 5.337946451155267 0.020952138421577324 1 0 1
1822 19 1 6.276046311328909 0.19664285550165148 2.5374396504661516 0 1 0
330 4 1 9.40258611095655 3.7851678961976662 7.221551535992732 0 0 -1
1156 13 1 5.9564175806748025 2.0715023375258297 7.2017827712574 2 0 -1
1426 15 1 6.425026800331609 6.485831748366384 1.5074518715601128 1 1 0
2643 28 1 8.657425338496603 6.911139503566222 1.1998145675890146 1 1 0
1644 18 1 7.941183668351035 7.284201790984149 2.7154876441764815 0 -1 0
1511 16 1 12.861198070992643 6.161049786708352 0.3988113942409031 0 -1 -1
2508 27 1 14.309032934589617 6.259758991230098 0.9421765996852335 0 0 0
2163 23 1 5.993899657875488 7.420003918536248 0.2990453611218867 1 0 0
402 5 1 14.67017846020917 0.732610135853666 4.811841665333924 1 0 0
433 5 1 9.290012199787698 5.9587726231102796 0.4058945349719753 1 0 1
2397 25 1 2.785462373193298 7.015757351067024 5.967626743088337 1 -1 0
2137 23 1 3.4069210954035762 3.309009554200524 0.15474629033851464 1 0 0
1041 11 1 11.219650505681932 0.5943255026109368 0.24947772417883843 0 0 1
2793 30 1 3.9414674656505913 5.187639929493964 7.499633252252182 1 -1 0
2135 23 1 5.001888267616328 3.9994458573308376 0.9744603853911786 1 0 0
968 11 1 1.6377309250832044 6.156939494616298 7.125688853143393 1 0 0
1699 18 1 0.020058555196518668 1.5014247664218716 0.5361326019337085 1 0 0
1509 16 1 12.962737491045074 6.747610668527828 2.146313109342588 0 -1 -1
2159 23 1 4.498888334657478 6.141404156320605 0.5953817779441808 1 0 0
2193 23 1 6.269846104429757 0.614885494642381 7.284259286824831 1 1 -1
905 10 1 4.371092896746092 1.4948288389037505 1.233496172400358 0 0 0
906 10 1 5.1092644390419615 1.4680254599150286 0.6188759544373483 0 0 0
2469 26 1 5.680210262469529 2.228127487486915 1.1183861979095358 0 0 -1
2472 26 1 8.358298982886522 1.984465172568563 0.6449526900493392 0 0 -1
151 2 1 9.94098254359509 0.9680016463611218 1.839211871807163 0 -1 0
26 1 1 12.161882944147054 1.1282806279823154 0.7717781464655796 0 0 0
1702 18 1 13.360781622302412 0.42905639244333355 0.5868626509290531 0 0 0
1068 12 1 14.88537122140895 4.325157224266184 0.17274322330661407 0 0 0
980 11 1 0.5146152443391668 2.650811426090621 1.7156239225135286 1 0 0
901 10 1 1.653696996382554 0.6638251594243046 1.6032683210906435 0 0 0
2748 29 1 7.1410042518222925 4.566623267389829 7.397400378032797 1 0 1
165 2 1 12.77837517938511 2.04514864183855 0.9527651702693599 0 -1 0
432 5 1 10.172505381223374 5.8221996525754625 0.6082061024831774 1 0 1
2005 21 1 0.9321441477169381 2.5353496734383887 7.1947136159700396 1 1 -1
38 1 1 2.7617122112225756 3.4364314212541696 3.0529123110270935 1 0 0
2442 26 1 2.3247918248718205 2.4678977946191183 1.0589115051135247 0 0 -1
2747 29 1 7.263120418379732 4.723374354015371 6.4015623309419 1 0 1
1154 13 1 4.298841460622919 2.584252067213716 6.650024263437665 2 0 -1
1524 16 1 9.541731574093854 1.8266146139782027 0.3564379572265313 0 -1 -1
1523 16 1 10.1663644244159 2.5424339271398306 0.427664398548933 0 -1 -1
981 11 1 14.836847884033599 2.1419820703137202 1.3361628849300944 0 0 0
39 1 1 2.3034950388436988 2.8708792178258986 2.4008124001961666 1 0 0
2441 26 1 1.3997672654518627 2.5746733298680926 0.8497910641202665 0 0 -1
2267 24 1 3.0267396937341524 3.033932172085396 1.50832381094572 1 1 0
2712 29 1 3.9367616769832643 4.663096198489343 1.244084580943118 1 0 1
2713 29 1 4.439571020030496 4.048239842808446 1.832674334228242 1 0 1
2770 29 1 6.093218537466227 3.2584345913823185 1.127252920780091 1 0 1
1522 16 1 10.848745658675996 3.0587634177932417 0.8677501960268093 0 -1 -1
928 10 1 14.277952719544778 3.003614927351973 0.7429678169734385 -1 0 0
47 1 1 2.1257655835302236 3.608728363864326 1.4236383194464297 1 0 0
2266 24 1 3.2982366322520553 3.844533556614999 1.092700088583365 1 1 0
2711 29 1 4.577318203382421 5.0418664316397415 0.5585048842880129 1 0 1
1521 16 1 10.613517506526888 4.007807951241833 0.8832095261305989 0 -1 -1
1514 16 1 12.74931189117334 4.182923554320482 1.2380785606721032 0 -1 -1
43 1 1 0.5500326342392372 4.646372801247614 1.3170642364671143 1 0 0
46 1 1 1.614425891221074 4.1427985330133605 1.9752617521948181 1 0 0
2264 24 1 2.047755334996937 5.019058877886792 1.17169432168007 1 1 0
268 3 1 4.766584076798316 0.4360337719595567 0.8380728509334292 1 0 0
2714 29 1 5.3056448341033215 4.1716203521896045 2.106334206615565 1 0 1
756 8 1 8.591785369101272 4.909302362802615 1.7150941174673668 0 1 1
753 8 1 9.601127139980214 5.251160785722619 1.3989698369774979 0 1 1
1520 16 1 11.42346833220778 3.9863786495514453 1.436298252681137 0 -1 -1
791 9 1 11.896352592459936 6.602523259814375 0.7652212321079779 1 1 0
930 10 1 14.047181468771457 4.654531099592235 1.1922094192776196 -1 0 0
42 1 1 14.945390330441995 3.9343613289450583 1.5018511950182913 0 0 0
2864 30 1 2.892598301098597 6.605823489482592 1.1544739153095616 1 -1 1
2133 23 1 5.773812460814068 5.438921673723976 1.210217284461924 1 0 0
2775 29 1 7.033200556329359 5.7354247217607845 1.3393181721289666 1 0 1
2591 27 1 5.807450523696138 5.875967303690604 7.216520193100504 1 0 0
792 9 1 12.211040375602714 6.006165231049153 1.4416885066962377 1 1 0
2507 27 1 13.968962884159575 6.03873961152941 1.8031535481427723 0 0 0
933 10 1 0.7576185537447262 6.350078948920706 1.2107549749203086 0 0 0
2863 30 1 2.8057851068412143 7.258369904143081 1.8815151546777313 1 -1 1
2131 23 1 5.216861905238624 6.4017669095275584 1.8095756546466568 1 0 0
1510 16 1 13.0966124794957 6.752824334889421 1.1365762456178206 0 -1 -1
322 4 1 8.037112382058623 6.953032793986615 6.036986490341782 0 0 -1
934 10 1 1.6674276002189805 6.731786838831848 1.2067504334847348 0 0 0
2003 21 1 0.43175241970958117 0.8660632925563356 6.429020675539921 1 1 -1
357 4 1 10.0567690752067 5.300977544493317 6.653350236447021 0 0 -1
2160 23 1 3.9603104764797523 6.964908137194946 0.35562046794235647 1 0 0
2130 23 1 5.320928708647097 7.215371878451986 1.3298836847333648 1 0 0
2555 27 1 14.310213503042963 3.6007040494643334 6.520274124461811 0 0 0
1849 20 1 3.916614542456848 7.392476223428799 5.960256469314951 0 0 0
2152 23 1 0.394657266572804 3.155373070740998 0.41888906030006 1 0 0
2399 25 1 3.1018711598662057 7.298402580559976 7.304831414611025 1 -1 0
544 6 1 12.189433115136083 2.4668445950323914 7.438645413682338 1 0 -1
2726 29 1 5.341661621446505 7.358762710549605 6.633023991771138 1 0 1
846 9 1 7.950765550548235 0.972549703665656 0.4088822050404506 1 1 0
655 7 1 2.251689047615235 0.7659580298688536 6.341350937830071 2 0 0
169 2 1 10.697071040742562 1.7278453394390008 0.030910364837086427 0 -1 0
804 9 1 8.969288388535546 1.1144186192388996 2.167605312155721 1 1 0
538 6 1 11.235431787042 3.5582220133540887 7.43442076719862 1 0 -1
133 2 1 2.743596825864016 2.478592974186777 0.12062090112812074 1 -1 0
1157 13 1 6.718887241827055 1.6890857693041408 6.779198712343905 2 0 -1
2081 22 1 12.654731305204399 6.506706844697683 3.142682450876908 -1 0 -1
1695 18 1 14.348274732842372 0.7759161513117662 1.1757771113182462 0 0 0
1696 18 1 0.06347131173272982 1.0451388222092421 1.6372303570075215 1 0 0
902 10 1 2.440748363012021 1.0301884289428387 1.2097324476280333 0 0 0
904 10 1 4.111435376399821 0.9200941952404418 1.9393962198003205 0 0 0
2468 26 1 5.043496314000109 2.77204352915043 0.7009223776518282 0 0 -1
2473 26 1 8.762689729264219 1.2076958496291734 1.054583290665913 0 0 -1
27 1 1 12.450776109940577 1.0723842918870397 1.642967814417035 0 0 0
319 4 1 8.159957149349436 6.378519223102975 7.16874216725204 0 0 -1
903 10 1 3.417333903692308 1.029264261416708 1.2530549271726308 0 0 0
2467 26 1 4.417212495243228 2.1535580855484335 0.3505945396697884 0 0 -1
2510 27 1 14.151905769123557 7.419508891298113 0.21219924046260202 0 0 0
803 9 1 9.229485049940083 1.9001550368294307 1.67090453270829 1 1 0
152 2 1 10.556391376384193 1.631860904160595 2.229033107684325 0 -1 0
28 1 1 12.96743101130203 1.3387897937041675 2.396631050375702 0 0 0
979 11 1 0.26894709878745365 2.4019529169742175 2.565898992845325 1 0 0
2443 26 1 2.9721655224348478 1.9250884686609702 1.448316724029986 0 0 -1
2465 26 1 2.9288491747551997 1.186065890759863 0.3116726169613242 0 0 -1
2466 26 1 3.59076827063079 1.7289839115078778 0.4582154271383764 0 0 -1
2765 29 1 7.427650161006509 4.6892988987679125 0.6660535040467696 1 0 1
2498 27 1 14.752482239997523 6.601921085528007 3.7619101854817583 0 0 0
802 9 1 10.108442964781354 2.15270278597927 1.4005654125323999 1 1 0
166 2 1 12.06032257408279 2.350911218055555 0.3805180431322619 0 -1 0
927 10 1 13.449150922364527 2.681138904764416 0.3741499551838182 -1 0 0
978 11 1 0.5583959365661937 3.3723273061686667 2.4911590811214785 1 0 0
48 1 1 2.713530492811112 4.039966270571526 2.090333693749008 1 0 0
2764 29 1 7.193393222505204 4.724539883276264 1.6213165000323204 1 0 1
1497 16 1 12.80764890614364 7.122137868572641 4.855264474376495 0 -1 -1
741 8 1 8.14176344901006 2.4368584442264747 1.7364548376690447 0 1 1
800 9 1 11.394672484698354 3.201719381081176 1.9815973964128966 1 1 0
178 2 1 11.868368983251045 3.3963913969946358 0.6173972198398178 0 -1 0
982 11 1 13.881257560723261 1.9379582702853824 1.2100793384582305 0 0 0
977 11 1 0.42524010883549535 4.325696550183986 2.858555819017807 1 0 0
2268 24 1 3.57701575377187 2.518361385433164 2.081897579194636 1 1 0
2763 29 1 6.629226248488173 4.081504531659644 2.031583805409255 1 0 1
757 8 1 8.397979030099183 4.587578245255574 2.569960708392049 0 1 1
752 8 1 9.645811595860899 4.580695012219406 2.0384938530035877 0 1 1
799 9 1 11.869941694400376 3.9748158897977666 2.371756247531163 1 1 0
798 9 1 12.630720696324563 4.565016915324686 2.378562855074928 1 1 0
797 9 1 13.5404578537129 4.247068927394187 2.506806008262413 1 1 0
929 10 1 13.964306579232419 3.7611417387394903 1.2450116214916378 -1 0 0
2392 25 1 1.4685264736576806 5.120964922163522 3.316064571463736 1 -1 0
2391 25 1 2.269293037164451 5.161058693757863 2.75057268604589 1 -1 0
744 8 1 8.826371985814285 3.697994525952155 3.6511759033012448 0 1 1
2506 27 1 13.583104373960964 5.360689900249866 2.3740526105051662 0 0 0
44 1 1 1.0595078591340024 5.369185535221809 1.355257424572835 1 0 0
45 1 1 1.1591512305522935 4.993947707827085 2.262093326441945 1 0 0
2263 24 1 1.911270116074214 5.745095194699581 1.843064105236576 1 1 0
2389 25 1 3.9042850488398684 5.291319406466401 2.13787030937322 1 -1 0
2716 29 1 5.954864986134677 5.842165255162636 2.298525171959673 1 0 1
2715 29 1 5.886454098954614 4.9293773465566035 2.0881342033023294 1 0 1
2095 22 1 9.008160055297592 6.350288630355982 1.9590508571304015 -1 0 -1
1518 16 1 10.809475472727256 5.06757005059279 1.1772913120502237 0 -1 -1
1519 16 1 11.770188623436706 4.951162147532383 1.3200975843379332 0 -1 -1
2872 30 1 14.184296723173997 7.237885912763745 2.9538999705661713 0 -1 1
2262 24 1 2.813543762912517 6.05434328102519 2.151548095023098 1 1 0
2096 22 1 9.760363075096835 6.3913760926642835 1.3630713366563532 -1 0 -1
1428 15 1 6.725608673640978 7.434794953778371 1.2846079428238768 1 1 0
383 4 1 10.132526092131338 6.995055503827612 4.460104307661958 0 0 -1
2862 30 1 3.7044191565571407 6.881102063969102 2.022488818397 1 -1 1
2439 26 1 1.6160293147013989 1.3744246321168514 0.8437432576884168 0 0 -1
2869 30 1 0.08835565111778232 7.338349140345773 0.5193093363341421 1 -1 1
468 5 1 9.80463700820926 7.499270085382019 7.125383966517946 1 0 0
1861 20 1 6.05581908144587 6.965826479497292 5.24268073522582 0 0 0
1783 19 1 9.070227511697455 0.6029586387363394 0.21641337654609044 0 1 0
1517 16 1 10.616275327177119 4.971644931560709 0.19875131247120387 0 -1 -1
1000 11 1 12.204546502153024 3.6356225382142893 7.188202436298217 0 0 0
1850 20 1 4.071843271126425 7.189007302294618 6.902557367342804 0 0 0
33 1 1 1.899129406866547 1.3013481979895014 2.5114562584870823 1 0 0
2792 30 1 3.347732080087099 5.174091412947875 6.6466913221543145 1 -1 0
1823 19 1 6.676535643826595 1.0128773724973577 2.0218943506366234 0 1 0
1809 19 1 9.028420042495457 1.8552393072312292 3.0079009391082603 0 1 0
153 2 1 11.435952768171523 1.3791337236566747 2.2319035061646786 0 -1 0
155 2 1 12.474225027061017 0.4139622818541531 3.5541757420758384 0 -1 0
2161 23 1 4.856271939833172 7.2588553976072925 0.3554193728780503 1 0 0
32 1 1 0.977616288667817 1.0722320058464965 2.51913053902703 1 0 0
34 1 1 1.6621011036587756 1.916824556146088 1.8401623705200656 1 0 0
2272 24 1 3.823837870483114 1.5235090358201733 2.707412405084887 1 1 0
2276 24 1 5.481235888613631 2.234647730153839 2.8510881579695155 1 1 0
2766 29 1 8.163261915588013 4.060764980838436 0.9735623815720119 1 0 1
2474 26 1 7.980297197521668 0.9370099202996457 1.6654525733149896 0 0 -1
1807 19 1 10.170014595286046 0.8072126355793338 3.380500427832291 0 1 0
164 2 1 12.012825328518398 2.3588656399961367 1.5757493519547368 0 -1 0
37 1 1 2.013488478222177 2.9596208847476086 3.373951761938053 1 0 0
2271 24 1 4.369681726771226 1.9695852656312536 2.119674396054265 1 1 0
801 9 1 11.02524239432444 2.366600017893344 1.6040170546310344 1 1 0
163 2 1 12.310850585170051 2.0937920607128 2.4482531811384765 0 -1 0
29 1 1 13.914303651520449 1.3767163954421264 2.2961731367799945 0 0 0
976 11 1 14.946578000560883 4.790599371157558 3.5078115058242694 0 0 0
2444 26 1 2.777337750927142 1.2857464136655827 2.185503063519221 0 0 -1
2278 24 1 6.336952279919576 3.036027696059043 2.5645727790685626 1 1 0
742 8 1 8.244661043603923 3.3398901795457783 2.13810111432133 0 1 1
751 8 1 9.651501851010352 3.6620832216246457 2.401161500222099 0 1 1
179 2 1 12.716951339912141 3.0253874929448092 0.9580038550896423 0 -1 0
983 11 1 13.687603506644294 2.7756123934669756 1.5886773911036765 0 0 0
49 1 1 3.4621873880618437 4.095002120174184 2.6472094059758606 1 0 0
2269 24 1 4.279802604228867 2.866155479005017 1.5234414311694495 1 1 0
2280 24 1 5.055681581204562 3.2853657095165802 2.8274599592750524 1 1 0
2279 24 1 5.931444706548718 3.586920804701504 3.194663440914925 1 1 0
2762 29 1 7.241905864092053 3.3955608510146824 1.9990470546687982 1 0 1
743 8 1 8.593470183564628 3.0145950832455246 3.0020375142002202 0 1 1
2103 22 1 10.41641401242816 3.634536380513858 1.7907324603240695 -1 0 -1
796 9 1 13.744798671753697 3.827914362254871 3.3336974458188684 1 1 0
2504 27 1 14.441657879437495 4.802102808135539 2.2270598774104227 0 0 0
2502 27 1 0.04694468447686051 6.199275838123156 2.0779174406356264 1 0 0
761 8 1 6.215349040631752 5.341408937939645 3.559571225857746 0 1 1
2093 22 1 8.717258778315358 5.1677784711623 3.4741913079714797 -1 0 -1
2102 22 1 10.687168520048374 4.4763951581013846 2.0738230964938533 -1 0 -1
2505 27 1 13.957145561795834 4.957650386912925 3.099933793964692 0 0 0
2503 27 1 14.897743946749312 5.338485186688527 1.6371882227557717 0 0 0
2393 25 1 1.6685865650750822 5.871652855980685 3.8259061164333867 1 -1 0
2390 25 1 2.9508146499519667 5.040663718406036 2.042545045342533 1 -1 0
760 8 1 5.601785986367046 4.668817105644307 3.219608665130108 0 1 1
2100 22 1 9.856918584271382 5.943439056351832 2.9257183689186217 -1 0 -1
2101 22 1 10.346754646043227 5.355426820245678 2.287197799341747 -1 0 -1
2086 22 1 11.127017691948508 6.106694037274364 1.4048727544276027 -1 0 -1
793 9 1 12.506371802496657 5.765780252024421 2.3930115437695862 1 1 0
2501 27 1 14.500156091278154 5.778190496137743 2.754781528565032 0 0 0
2499 27 1 0.43662475178600196 5.970658303488881 3.7321991856371284 1 0 0
650 7 1 2.9595409649288476 1.0218773856328598 7.327940565615143 2 0 0
2388 25 1 4.824117032482782 5.155659960965543 2.0401502858729 1 -1 0
2717 29 1 6.341322991383101 6.659245310299097 2.69662437402837 1 0 1
2094 22 1 8.600644807408575 5.752409328236686 2.698349460194379 -1 0 -1
2085 22 1 10.524119840599258 6.462892211139161 2.0409685034026963 -1 0 -1
2873 30 1 13.725553749926586 6.398203783890227 2.8687090355751392 0 -1 1
2111 22 1 11.278187144506514 0.7487509843878604 6.184454124366027 -1 0 -1
766 8 1 3.374418934676864 6.321393379209396 3.259602880403341 0 1 1
2866 30 1 1.5270510814456424 6.102267363005827 0.3867458974169995 1 -1 1
898 10 1 2.0520741876901036 0.5164825206614528 3.16255904225552 0 0 0
924 10 1 13.51898641529957 3.7287438220343527 0.11304092266201969 -1 0 0
2132 23 1 5.586443915441065 6.371050852571506 0.960480130008307 1 0 0
1162 13 1 2.842518954138518 2.187353844506937 7.156394951286232 2 0 -1
1687 18 1 0.9270921411356754 0.06942017326882087 3.328394399187005 1 0 0
2274 24 1 3.9187168360973037 2.2543421205151044 3.6031237016454223 1 1 0
2430 26 1 5.692167800917294 1.1830535617823206 2.5205526871282764 0 0 -1
2471 26 1 7.502199754542009 2.2068168058487037 0.8812662182821578 0 0 -1
1153 13 1 3.8138750956779672 2.9852519740895893 5.89159504836942 2 0 -1
2543 27 1 11.562713605670226 0.7607147474387898 3.572192173941512 0 0 0
1686 18 1 1.1517674291042226 0.9829009562618563 3.6732695689928954 1 0 0
2273 24 1 3.9934102234058186 1.3058993626295001 3.6456920657678724 1 1 0
2275 24 1 4.87274997321804 2.0833800433071676 3.637508030532418 1 1 0
1824 19 1 7.23233638818672 1.7909534992802936 1.9392583898121754 0 1 0
2480 26 1 6.7949178984714855 1.2882700848011646 3.245661294206936 0 0 -1
1810 19 1 9.009912541279919 0.9589070339270679 3.3493322169343624 0 1 0
1808 19 1 9.923441113328687 1.7024474420358715 3.371786951421076 0 1 0
154 2 1 12.117971208531642 1.0268182533330332 2.8540261060142544 0 -1 0
156 2 1 13.339734387829218 0.9128041418481803 3.5071356518306995 0 -1 0
56 1 1 14.35237801704511 1.1199281629310474 3.3985489023528554 0 0 0
35 1 1 1.3750134817625064 2.1742582564416173 2.7496147933358577 1 0 0
2475 26 1 7.849130471754567 1.133169363414335 2.586286286617675 0 0 -1
162 2 1 13.173722268407671 2.3746594861531465 2.375619441755912 0 -1 0
55 1 1 14.997570566462873 1.8191506147205985 3.443378286753661 0 0 0
31 1 1 0.2095709827494788 0.912633657084791 3.041190539903646 1 0 0
36 1 1 1.8617663001608042 2.076670972891958 3.6361697050364348 1 0 0
2446 26 1 2.527174926059336 1.2615371724933777 3.6179759264479823 0 0 -1
2277 24 1 6.032347125377386 2.218705445885306 2.0903108971480933 1 1 0
2478 26 1 6.958018537583651 2.58390597782521 3.7588049773508296 0 0 -1
2479 26 1 6.948000489747262 2.1301988693591745 2.8545760432625435 0 0 -1
749 8 1 9.64206024093326 2.6890012220720028 3.9442027955414685 0 1 1
1806 19 1 9.645543803337087 0.43295367491533654 4.062709915359163 0 1 0
2105 22 1 11.263571866076271 2.4600563148292633 2.813014973866706 -1 0 -1
161 2 1 14.154100517421767 2.3349225244177507 2.7444351483908798 0 -1 0
2445 26 1 2.6749554693088173 1.9063126380075017 2.9010360365746304 0 0 -1
2270 24 1 5.032362484990224 2.654153947738352 2.029253778109735 1 1 0
2281 24 1 4.146968421196413 3.2617260865717914 2.9453119149792206 1 1 0
2761 29 1 7.435724661431935 3.1113727319043023 2.8564645627607774 1 0 1
748 8 1 8.988956726849963 2.8891898006538113 4.565485128753421 0 1 1
750 8 1 9.93361841327862 3.2843908584371824 3.2434812565348667 0 1 1
2104 22 1 10.474645731014226 2.8712752084597057 2.403860998334229 -1 0 -1
180 2 1 12.629091778482923 3.3520574192974433 1.899402092660429 0 -1 0
984 11 1 13.758002005008441 3.233468172354286 2.3850050577754907 0 0 0
30 1 1 14.456215441902994 0.5684031013074528 2.471432678035571 0 0 0
975 11 1 14.16315052685431 4.497568598280221 4.003755940414047 0 0 0
51 1 1 2.073896269118643 4.292376634046495 3.454346209615213 1 0 0
2282 24 1 4.522868516635876 3.494998222956927 3.8404621861722417 1 1 0
758 8 1 7.462926926389671 4.415505876479367 2.563176968454637 0 1 1
2088 22 1 11.45625461668978 4.947302909917376 2.5621016694528755 -1 0 -1
985 11 1 14.607626904455207 3.399607710426299 2.7776759479744304 0 0 0
50 1 1 3.043599163392498 4.323358364865031 3.4209033262134874 1 0 0
2385 25 1 3.408328480066241 5.2093919006508065 4.276313650051298 1 -1 0
763 8 1 5.201610452923596 6.418598179984478 2.7799347945266097 0 1 1
762 8 1 5.318816374691164 5.614118095310093 3.2359007658485903 0 1 1
759 8 1 6.5676675227308055 4.549245983530664 2.86650625559822 0 1 1
2092 22 1 9.52916473654146 4.710056935439048 3.181689458549066 -1 0 -1
745 8 1 9.65633052072149 3.942704621480067 4.0296794132388944 0 1 1
2089 22 1 11.58543557384696 4.446213776789809 3.3868968750733717 -1 0 -1
2087 22 1 11.558156535534447 5.83818517424709 2.180462096535163 -1 0 -1
2386 25 1 3.9478411142797314 4.840292865099382 3.591147669641874 1 -1 0
2090 22 1 10.906283769816975 3.7137031977828037 3.3855490511294986 -1 0 -1
795 9 1 12.988195664809568 4.380813116671853 3.5324366024038185 1 1 0
2875 30 1 13.386830210668492 6.4639532005668 4.102166242690458 0 -1 1
2500 27 1 0.3641345314013779 5.5507239988865456 2.8397698153925974 1 0 0
2394 25 1 2.3690020078876177 5.262042050812621 3.7697514078538297 1 -1 0
2387 25 1 4.629595220965624 4.866457041877551 2.917783018727303 1 -1 0
2718 29 1 6.729180101765217 7.0496793614886615 3.4840807199656476 1 0 1
1442 16 1 7.678469143795988 6.083081394061983 2.875700526049612 0 -1 -1
2099 22 1 9.842798836498512 6.877459265830738 2.907317689936015 -1 0 -1
2431 26 1 5.049226812155606 0.7522845601341374 3.107982728616844 0 0 -1
2084 22 1 10.831956219627562 6.548568283324402 3.004085697688476 -1 0 -1
2083 22 1 11.00502205080137 5.663880533673101 3.202549920255034 -1 0 -1
794 9 1 12.579574489346218 5.1579135978685535 3.153984286302714 1 1 0
2874 30 1 13.767750480835396 5.758455668876606 3.5973877276323587 0 -1 1
1784 19 1 9.254913830605442 0.11654800849537315 1.0334216005338686 0 1 0
1042 11 1 10.445439885759553 0.0045883191944412795 0.5390746765327905 0 0 1
765 8 1 4.24594224771335 5.966387378091202 3.481547168479119 0 1 1
1001 11 1 13.160186468351032 3.858571495113626 6.971687226094293 0 0 0
991 11 1 13.479668702927173 1.8153099378611002 7.252486442794911 0 0 0
542 6 1 11.134071390352059 1.2190515534479611 7.2850424115912205 1 0 -1
343 4 1 6.454466993609996 0.3150267399656147 4.421848919843532 0 0 -1
2644 28 1 8.971919650559673 7.415287869609057 0.4063797301795647 1 1 0
2292 24 1 3.8631568896258024 1.3991928044993134 4.705968410758076 1 1 0
321 4 1 7.4899088719652465 6.176019894053609 6.287342152480923 0 0 -1
337 4 1 9.1545331028154 1.806670933820471 4.462546627348864 0 0 -1
2544 27 1 11.95596864081544 1.6131909967279865 3.9027109904147324 0 0 0
157 2 1 12.850371221688391 1.723781188278739 3.4060576838491716 0 -1 0
2114 23 1 3.7228843067814075 6.916081523325803 4.049327490515311 1 0 0
2447 26 1 3.1943470355425205 0.7789708130091618 4.009345230365349 0 0 -1
2291 24 1 4.718282055439783 1.3541569611568427 5.081748071666857 1 1 0
2286 24 1 5.213084219008485 0.8901180756369628 4.084052652414453 1 1 0
2481 26 1 7.48311338869354 1.2375654038155146 3.8907832953138044 0 0 -1
1804 19 1 11.08879312798609 0.8082354135257507 5.128609351121258 0 1 0
2107 22 1 10.954564707413988 1.4443435454248594 4.096959472318127 -1 0 -1
1685 18 1 1.8820943757362607 1.0945359907586099 4.374040885883285 1 0 0
2285 24 1 5.790318842066662 1.5329080093194163 3.6462447290554985 1 1 0
2477 26 1 7.910447905770133 2.446318046817097 3.763157036786582 0 0 -1
2476 26 1 8.05013454892895 2.03400350986582 2.8608186141935192 0 0 -1
1633 18 1 11.973325454464549 6.920222836884333 1.6911321558291394 0 -1 0
2106 22 1 10.967508149035881 1.562303026278942 3.1543209729224806 -1 0 -1
2546 27 1 13.067798670194621 2.6561914009666783 4.639206610662051 0 0 0
158 2 1 12.914816120422497 1.580123595720139 4.305234208528371 0 -1 0
53 1 1 0.9526852849529593 3.3124705324818815 3.6265362415710958 1 0 0
2496 26 1 1.263873739997161 2.41792548763022 4.801472764703013 0 0 -1
2493 26 1 3.395290745529301 3.111148102092545 3.941441998220576 0 0 -1
2284 24 1 5.96253703833187 2.3860296888565746 4.017626877462037 1 1 0
2547 27 1 13.011911916833958 3.386635890557471 4.023757592110487 0 0 0
54 1 1 0.8016281991857754 2.3785356667052633 3.617745249027688 1 0 0
52 1 1 1.4810881343105375 3.7381322161303547 2.978667156251869 1 0 0
2283 24 1 5.393540343753915 3.1493122933349937 4.042506712816137 1 1 0
1458 16 1 6.379515563087631 3.6774766558871357 4.108562995865735 0 -1 -1
747 8 1 8.484695508753495 3.420531738856245 5.18966089381425 0 1 1
181 2 1 12.768382231036984 3.2096388821958017 2.8356432721709592 0 -1 0
2548 27 1 13.368091955554643 3.818974666367701 4.867891550841604 0 0 0
986 11 1 14.940548107390347 3.4269579732555777 3.6823281966340873 0 0 0
2579 27 1 3.784572736503246 3.744116120627519 4.831060347603478 1 0 0
1459 16 1 6.6720586666786845 4.597926279613248 4.087546097807249 0 -1 -1
2760 29 1 7.456734949200712 3.55724577707841 3.7598799028322394 1 0 1
2759 29 1 8.03785875935303 4.324025969199105 4.040911085141073 1 0 1
746 8 1 9.290171218026542 3.750918536532205 4.909049148028452 0 1 1
1470 16 1 10.365278752724018 4.686790120570756 4.358208551308701 0 -1 -1
1471 16 1 11.125957198225493 4.062809643198991 4.479650580589621 0 -1 -1
973 11 1 14.779575930607777 6.086001558962898 4.59030345062731 0 0 0
2578 27 1 3.0194818036299895 4.18497102331606 4.498434560133587 1 0 0
1480 16 1 12.893746593159243 4.7040392430134705 4.727864323901178 0 -1 -1
1479 16 1 13.55395620061049 5.280740140347935 4.435515699358512 0 -1 -1
974 11 1 14.653003789032896 5.127916287276241 4.551869687653382 0 0 0
972 11 1 0.6567106917231429 5.99646463728863 4.771148876646076 1 0 0
2384 25 1 3.8619730288069865 6.000108982154059 4.432595434247358 1 -1 0
2719 29 1 6.90825572693915 6.1181392118227835 3.836066690416741 1 0 1
2091 22 1 10.423009612058161 4.5148364546455975 3.261629880903944 -1 0 -1
1662 18 1 11.379524999697322 7.295410541759355 3.7283341559271426 0 -1 0
1664 18 1 11.269649916849497 5.5099173662527425 4.207797025559377 0 -1 0